# vtk DataFile Version 4.0
vtk output
ASCII
DATASET UNSTRUCTURED_GRID
POINTS 3788 float
0 0 0 999 0 0 999 999 0 
0 999 0 499.5 499.5 0 0 499.5 0 
425.625 304.956 0 249.75 499.5 0 363.188 244.462 0 
217.847 403.603 0 187.312 437.062 0 244.378 397.576 0 
259.983 408.884 0 155.044 412.71 0 307.919 417.071 0 
202.922 405.844 0 187.49 406.428 0 259.911 426.225 0 
309.082 425.986 0 327.97 399.501 0 330.832 372.575 0 
349.945 420.906 0 340.798 375.612 0 324.295 364.462 0 
449.241 325.114 0 215.45 454.818 0 0 249.75 0 
299.741 447.015 0 245.119 421.956 0 170.292 438.883 0 
306.139 437.268 0 273.059 408.819 0 178.452 434.701 0 
360.251 383.428 0 258.247 400.269 0 311.791 407.941 0 
314.412 395.472 0 221.387 425.758 0 499.5 0 0 
230.848 421.772 0 208.944 418.778 0 285.267 440.686 0 
254.284 437.326 0 214.923 413.189 0 233.996 442.462 0 
269.709 433.898 0 229.805 432.515 0 238.614 434.66 0 
212.242 445.771 0 219.346 436.921 0 184.528 397.257 0 
302.621 400.3 0 205.299 432.921 0 211.771 463.684 0 
196.702 395.173 0 234.345 398.293 0 331.596 414.243 0 
349.279 405.903 0 317.58 402.648 0 318.297 438.088 0 
289.412 359.265 0 251.673 326.948 0 255.588 385.415 0 
265.968 378.479 0 280.924 429.417 0 314.297 449.598 0 
281.012 396.625 0 212.394 427.208 0 193.386 422.309 0 
224.12 450.7 0 434.567 246.021 0 217.356 355.816 0 
338.05 366.759 0 208.959 341.277 0 238.058 416.154 0 
322.13 394.326 0 307.573 445.183 0 251.165 428.768 0 
305.411 365.794 0 242.171 407.992 0 311.763 383.01 0 
324.353 386.847 0 320.882 375.663 0 202.074 424.548 0 
155.059 446.69 0 195.117 412.318 0 184.749 415.667 0 
283.733 416.373 0 214.644 333.669 0 328.007 240.098 0 
384.364 230.707 0 347.486 278.496 0 459.543 258.061 0 
317.507 332.837 0 484.657 213.018 0 399.486 267.47 0 
419.651 296.43 0 272.207 360.874 0 439.877 262.309 0 
380.413 277.552 0 394.877 256.814 0 337.177 398.843 0 
279.347 373.312 0 270.441 370.156 0 253.828 392.672 0 
294.058 440.297 0 458.418 269.432 0 425.406 229.608 0 
371.228 249.664 0 327.032 336.583 0 179.536 371.413 0 
335.797 425.947 0 305.718 461.637 0 181.71 426.129 0 
189.179 429.204 0 171.207 406.623 0 277.819 495.655 0 
315.829 459.766 0 471.239 206.268 0 228.68 366.893 0 
209.657 399.88 0 215.407 375.848 0 351.447 377.225 0 
224.351 414.76 0 362.438 412.835 0 262.605 355.924 0 
266.403 332.168 0 263.281 417.568 0 258.791 345.817 0 
375.077 286.368 0 222.15 384.476 0 361.796 398.098 0 
340.778 417.553 0 322.415 408.825 0 386.46 379.224 0 
351.272 356.402 0 316.869 417.929 0 300.057 380.863 0 
353.816 366.718 0 304.399 390.178 0 343.822 434.62 0 
333.527 381.6 0 351.305 429.737 0 332.479 437.931 0 
360.487 373.743 0 232.361 388.431 0 225.968 374.544 0 
250.825 413.458 0 262.627 387.909 0 296.863 418.435 0 
320.378 468.989 0 292.14 406.011 0 274.42 386.781 0 
275.853 467.392 0 282.583 454.352 0 272.33 445.844 0 
295.9 431.692 0 243.807 386.945 0 291.956 394.94 0 
340.752 357.892 0 271.546 421.807 0 292.067 471.168 0 
271.725 457.005 0 248.855 472.108 0 258.996 450.718 0 
223.52 395.34 0 273.843 345.911 0 280.259 354.184 0 
207.346 350.637 0 193.877 360.187 0 258.671 474.325 0 
319.559 341.603 0 346.974 370.797 0 366.206 351.718 0 
244.207 337.235 0 256.834 335.778 0 242.576 377.468 0 
323.409 427.027 0 285.199 463.959 0 261.003 442.487 0 
260.169 464.373 0 246.122 447.723 0 253.512 445.122 0 
250.44 458.33 0 234.114 458.794 0 237.668 450.602 0 
432.699 236.3 0 391.433 269.867 0 404.566 244.026 0 
355.538 250.221 0 176.09 344.625 0 397.9 249.38 0 
346.837 362.967 0 326.344 347.521 0 312.629 357.674 0 
218.388 366.236 0 350.224 393.478 0 294.582 302.326 0 
226.791 350.252 0 376.693 360.469 0 307.529 330.558 0 
294.864 457.541 0 196.076 376.024 0 195.097 403.257 0 
217.175 346.749 0 292.22 371.906 0 209.85 360.907 0 
299.195 345.818 0 373.556 376.095 0 225.649 341.176 0 
288.681 384.362 0 462.225 226.698 0 348.251 264.127 0 
380.123 396.778 0 235.872 370.657 0 376.075 352.258 0 
338.354 389.688 0 336.997 451.376 0 312.539 432.913 0 
369.064 363.569 0 309.283 347.857 0 283.79 341.725 0 
433.847 353.318 0 315.039 367.762 0 247.553 355.83 0 
367.776 405.22 0 384.128 339.288 0 404.157 363.266 0 
289.085 326.54 0 273.099 289.877 0 199.689 343.348 0 
197.84 367.708 0 377.821 310.138 0 374.414 421.657 0 
302.435 355.765 0 365.856 390.254 0 292.027 338.432 0 
196.054 302.256 0 339.584 407.755 0 372.563 325.998 0 
244.25 346.826 0 205.696 370.956 0 355.211 437.774 0 
360.305 359.647 0 198.431 352.336 0 168.756 384.778 0 
224.678 324.906 0 374.639 389.329 0 388.993 394.153 0 
199.775 385.488 0 289.306 348.671 0 203.555 378.556 0 
307.197 374.915 0 261.93 321.395 0 188.84 385.845 0 
247.376 367.18 0 265.826 310.401 0 234.726 345.701 0 
396.19 359.161 0 392.354 422.409 0 420.803 383.419 0 
410.64 344.396 0 225.714 359.336 0 208.321 390.984 0 
424.969 369.383 0 386.714 325.36 0 395.409 385.385 0 
361.119 310.603 0 398.664 332.968 0 441.449 320.744 0 
401.987 428.849 0 441.999 311.173 0 433.196 394.912 0 
390.121 333.197 0 379.892 331.297 0 416.871 403.025 0 
484.639 301.341 0 324.959 325.821 0 333.459 309.885 0 
460.758 314.474 0 358.398 300.087 0 436.069 280.815 0 
427.173 270.716 0 346.081 308.884 0 321.723 305.136 0 
459.976 288.415 0 417.3 257.564 0 440.871 252.475 0 
432.695 256.289 0 448.118 257.848 0 404.046 341.836 0 
436.835 271.172 0 388.943 283.334 0 404.826 440.084 0 
393.492 307.865 0 398.758 282.83 0 483.988 236.325 0 
361.653 329.778 0 383.855 296.585 0 432.643 309.081 0 
422.864 283.412 0 458.053 323.648 0 349.332 294.102 0 
404.031 274.536 0 379.357 319.449 0 315.858 321.003 0 
376.369 343.455 0 368.927 338.745 0 378.21 267.486 0 
345.931 333.629 0 350.55 326.611 0 324.436 315.307 0 
465.543 298.719 0 387.546 253.549 0 364.411 320.106 0 
470.775 283.926 0 413.35 323.883 0 332.41 282.928 0 
450.938 339.918 0 421.277 357.094 0 413.673 311.114 0 
425.769 349.239 0 406.605 334.215 0 352.814 316.613 0 
439.389 410.639 0 463.514 240.966 0 388.795 438.158 0 
434.426 378.054 0 409.892 258.862 0 404.96 318.784 0 
410.124 461.058 0 421.719 329.015 0 369.138 298.458 0 
448.59 285.747 0 391.406 365.227 0 432.821 327.831 0 
369.543 313.006 0 353.527 337.218 0 416.834 347.812 0 
400.735 378.102 0 406.273 385.225 0 392.927 413.004 0 
393.714 400.077 0 377.023 301.663 0 426.628 322.399 0 
407.407 418.606 0 412.407 366.768 0 413.69 338.014 0 
377.071 405.511 0 383.692 364.807 0 414.537 392.36 0 
412.805 241.745 0 443.283 331.771 0 429.272 338.417 0 
388.371 346.279 0 386.838 354.312 0 279.387 334.025 0 
278.177 320.965 0 396.204 348.627 0 415.819 273.942 0 
425.398 261.767 0 439.863 342.654 0 440.224 297.145 0 
471.7 333.543 0 417.3 374.743 0 397.791 369.574 0 
474.838 301.872 0 453.836 298.368 0 429.761 386.188 0 
420.38 317.03 0 405.372 290.099 0 344.774 345.914 0 
308.117 314.213 0 396.332 323.443 0 337.531 333.437 0 
403.403 223.81 0 334.183 261.104 0 352.697 285.791 0 
442.238 238.943 0 432.813 213.758 0 402.406 259.592 0 
358.044 274.669 0 487.672 256.484 0 343.349 252.696 0 
409.529 266.378 0 365.691 264.238 0 369.085 276.719 0 
408.877 251.409 0 446.284 273.24 0 469.785 230.976 0 
341.82 287.078 0 363.566 255.092 0 448.154 210.388 0 
468.082 250.468 0 441.337 215.96 0 454.609 230.873 0 
454.06 245.633 0 332.761 318.941 0 461.86 167.199 0 
114.164 198.058 0 416.418 248.844 0 487.353 190.946 0 
465.981 264.439 0 478.719 250.733 0 474.736 266.779 0 
540.461 233.979 0 432.433 223.236 0 473.664 161.469 0 
345.891 233.96 0 266.463 397.15 0 264.351 482.634 0 
227.629 405.781 0 204.904 480.234 0 340.078 473.936 0 
302.194 454.545 0 441.797 224.752 0 424.181 247.06 0 
252.033 378.848 0 451.607 220.689 0 329.752 406.88 0 
356.96 265.856 0 401.192 311.26 0 408.545 353.911 0 
461.883 218.019 0 398.832 405.663 0 387.956 405 0 
232.678 333.866 0 233.605 379.443 0 239.346 361.379 0 
451.562 311.845 0 426.613 296.876 0 335.807 349.568 0 
341.833 319.381 0 361.649 285.305 0 334.146 341.233 0 
406.994 305.165 0 397.823 294.408 0 417.693 303.125 0 
469.14 309.865 0 410.366 282.985 0 459.353 206.405 0 
438.616 203.572 0 519.029 233.364 0 155.969 429.699 0 
302.187 410.144 0 258.665 365.983 0 150.542 376.249 0 
357.221 347.598 0 281.18 481.222 0 302.978 493.905 0 
294.028 484.213 0 305.47 475.823 0 303.199 484.723 0 
323.332 485.12 0 263.679 496.805 0 263.975 535.675 0 
255 489.291 0 252.085 480.643 0 228.458 484.707 0 
260.219 516.267 0 258.208 505.871 0 272.085 508.579 0 
273.501 523.764 0 293.697 514.222 0 284.984 559.112 0 
284.238 506.238 0 289.899 495.566 0 284.203 542.089 0 
176.172 469.122 0 195.281 454.288 0 200.611 443.755 0 
369.536 515.576 0 330.616 391.9 0 213.584 384.221 0 
413.546 293.054 0 474.055 241.17 0 362.848 234.892 0 
472.117 176.954 0 489.685 228.087 0 499.245 225.1 0 
482.045 201.498 0 436.101 192.121 0 458.599 197.281 0 
451.541 175.302 0 499.403 203.619 0 512.861 248.131 0 
471.097 221.288 0 498.804 240.482 0 449.486 196.4 0 
480.311 224.557 0 444.353 189.383 0 476.231 191.962 0 
465.117 190.852 0 507.549 233.035 0 445.192 156.595 0 
513.717 218.269 0 461.493 180.315 0 452.375 186.032 0 
460.93 150.26 0 440.253 178.416 0 442.089 167.362 0 
117.915 184.811 0 451.951 164.373 0 454.002 155.766 0 
110.537 185.764 0 121.547 192.994 0 124.463 150.27 0 
380.433 221.387 0 373.867 149.157 0 97.146 127.875 0 
122.943 176.598 0 478.555 111.521 0 156.845 145.08 0 
326.422 176.668 0 108.841 132.989 0 141.341 158.288 0 
350.069 195.394 0 147.751 162.076 0 376.921 170.866 0 
359.642 144.047 0 394.314 189.142 0 466.147 129.255 0 
369.485 169.187 0 356.058 182.287 0 357.449 152.371 0 
279.869 69.2644 0 375.391 159.985 0 459.501 138.755 0 
56.6017 149.611 0 137.255 152.064 0 381.384 177.047 0 
138.03 164.957 0 100.271 151.17 0 383.606 167.2 0 
377.576 127.995 0 105.335 172.909 0 361.819 174.761 0 
372.562 133.467 0 372.573 178.183 0 160.458 438.459 0 
109.744 435.743 0 167.23 420.566 0 158.29 421.053 0 
143.94 421.834 0 164.049 412.12 0 158.575 397.582 0 
175.202 415.302 0 142.292 437.486 0 169.429 395.763 0 
[...]
POINT_DATA 3788
FIELD FieldData 1
weights 1 3788 float
0.084805 8.94792e-06 0.0864922 8.94792e-06 0.169619 0.085229 0.515013 0.294727 0.776413 
0.61535 0.464083 0.650722 0.607248 0.496401 0.541825 0.592906 0.571314 0.541773 
0.509201 0.573162 0.655284 0.466293 0.624695 0.693898 0.413379 0.427354 0.291212 
0.445618 0.558366 0.4364 0.473237 0.60259 0.461184 0.55709 0.640253 0.569032 
0.608735 0.535272 0.085229 0.555101 0.551608 0.478151 0.501193 0.577349 0.479725 
0.510507 0.514621 0.509629 0.456802 0.493071 0.599057 0.607906 0.497017 0.395145 
0.623899 0.645189 0.518249 0.513555 0.579194 0.457369 0.766931 0.889858 0.696457 
0.718944 0.52152 0.423763 0.642984 0.52363 0.522657 0.446331 0.511249 0.785181 
0.657579 0.820722 0.578873 0.600394 0.444921 0.533096 0.72342 0.610835 0.655664 
0.621607 0.664724 0.524082 0.390165 0.560404 0.535036 0.567701 0.849818 0.885277 
0.695437 0.816272 0.421387 0.79899 0.329115 0.640358 0.544981 0.777495 0.49073 
0.705014 0.660869 0.558844 0.728982 0.746463 0.669543 0.473379 0.423054 0.540948 
0.74861 0.768123 0.677834 0.473619 0.392458 0.49462 0.493421 0.545241 0.302674 
0.38975 0.367072 0.75703 0.621821 0.714668 0.595746 0.578091 0.467119 0.799253 
0.870901 0.57355 0.833313 0.716293 0.689457 0.511224 0.492441 0.550742 0.502863 
0.655201 0.527504 0.68 0.620242 0.64154 0.434295 0.621283 0.437325 0.440108 
0.583933 0.681231 0.72818 0.59091 0.685531 0.548952 0.357412 0.598746 0.683976 
0.390713 0.431832 0.466213 0.502276 0.690551 0.639319 0.677229 0.554617 0.371139 
0.427222 0.379178 0.452214 0.650331 0.825096 0.793265 0.790039 0.739572 0.3717 
0.771125 0.62509 0.626894 0.86017 0.864292 0.725232 0.48785 0.398105 0.481485 
0.404611 0.46319 0.47276 0.425906 0.421818 0.451489 0.516268 0.669385 0.624181 
0.802959 0.752392 0.649956 0.648068 0.739943 0.737277 0.751151 0.549744 0.91125 
0.811565 0.575706 0.824772 0.413768 0.690262 0.592877 0.813951 0.720929 0.760018 
0.796045 0.544397 0.838943 0.680914 0.407541 0.823645 0.47363 0.747602 0.597212 
0.585896 0.392727 0.481393 0.588998 0.773174 0.828613 0.421885 0.700939 0.801873 
0.478006 0.601556 0.490545 0.864768 0.959114 0.801032 0.721077 0.675851 0.419169 
0.7604 0.524575 0.828154 0.89467 0.525789 0.665031 0.830767 0.720864 0.407457 
0.622805 0.771759 0.613417 0.884017 0.506411 0.459423 0.662409 0.800998 0.691739 
0.690248 0.90198 0.645403 0.762853 0.926138 0.830985 0.522509 0.382414 0.403944 
0.507959 0.780874 0.652939 0.419574 0.620239 0.464849 0.73001 0.567144 0.443447 
0.349056 0.452079 0.352071 0.594549 0.631181 0.373923 0.324894 0.799814 0.812686 
0.387869 0.755572 0.497374 0.534982 0.779138 0.851361 0.409633 0.575803 0.488259 
0.518158 0.461634 0.533506 0.499195 0.669344 0.31962 0.625143 0.633672 0.339449 
0.691114 0.673887 0.486129 0.543974 0.387458 0.792721 0.619738 0.655144 0.831637 
0.61652 0.649514 0.719215 0.727659 0.730722 0.824689 0.385034 0.688762 0.702273 
0.376447 0.533188 0.85645 0.39039 0.452509 0.549828 0.452698 0.538955 0.744689 
0.31134 0.407157 0.351071 0.378824 0.603659 0.569435 0.269905 0.497566 0.722442 
0.450033 0.52277 0.462783 0.698689 0.698029 0.482532 0.467763 0.437438 0.404036 
0.433721 0.691133 0.490539 0.361142 0.45975 0.509464 0.457258 0.545512 0.401496 
0.592471 0.424142 0.459068 0.573719 0.560811 0.855621 0.89162 0.544724 0.575868 
0.544479 0.420022 0.471164 0.337297 0.430293 0.49495 0.353857 0.42365 0.376114 
0.518865 0.60302 0.700009 0.862873 0.591439 0.750397 0.620383 0.867633 0.792408 
0.481891 0.504247 0.631884 0.785266 0.329733 0.842136 0.602909 0.765266 0.745944 
0.608308 0.464296 0.383684 0.824564 0.775258 0.447154 0.392609 0.475035 0.435359 
0.440578 0.796133 0.360357 0.65871 0.579637 0.307547 0.398505 0.35778 0.369189 
0.190362 0.511717 0.319363 0.829997 0.649559 0.344533 0.613736 0.338079 0.324682 
0.418343 0.478388 0.550174 0.721008 0.441439 0.545611 0.794368 0.593407 0.496509 
0.404718 0.40874 0.434632 0.865394 0.71493 0.781345 0.419741 0.519532 0.712464 
0.770861 0.763586 0.739029 0.580894 0.626274 0.545115 0.365682 0.590512 0.406043 
0.475238 0.24012 0.444118 0.573166 0.766122 0.600618 0.662316 0.3446 0.297692 
0.330024 0.348503 0.323582 0.308875 0.302022 0.20275 0.324861 0.351681 0.335184 
0.249206 0.276871 0.268111 0.229426 0.248222 0.154867 0.271632 0.298984 0.18726 
0.348385 0.413995 0.454623 0.206855 0.593582 0.682882 0.570345 0.372005 0.774508 
0.340208 0.319924 0.291075 0.330431 0.472783 0.401454 0.402006 0.281554 0.25793 
0.375724 0.295847 0.431147 0.347544 0.441571 0.341189 0.374795 0.270077 0.39697 
0.249663 0.376091 0.411311 0.341596 0.442594 0.422023 0.651639 0.387027 0.369236 
0.627899 0.677159 0.602052 0.703563 0.604403 0.469732 0.653762 0.244304 0.678012 
0.801409 0.515003 0.670931 0.773832 0.698396 0.643096 0.63202 0.616348 0.298301 
0.663243 0.731667 0.659693 0.515614 0.62488 0.329465 0.39171 0.643878 0.640425 
0.676898 0.529761 0.61413 0.54062 0.588363 0.69876 0.568634 0.671501 0.423596 
0.343287 0.492033 0.47553 0.447225 0.514585 0.551691 0.522309 0.397484 0.578479 
0.582897 0.576284 0.494569 0.265518 0.396224 0.512078 0.522002 0.479074 0.547732 
0.520526 0.328668 0.412392 0.437677 0.565836 0.579307 0.574273 0.544153 0.577078 
0.621814 0.648201 0.591938 0.616707 0.61733 0.669724 0.636361 0.365598 0.339124 
0.351575 0.381075 0.470374 0.444056 0.521015 0.54821 0.48009 0.559551 0.555171 
0.425905 0.429929 0.530888 0.59562 0.500945 0.538926 0.558689 0.45235 0.595771 
0.684979 0.472632 0.598463 0.617745 0.629139 0.502556 0.634375 0.462932 0.469867 
0.489035 0.485989 0.501833 0.545257 0.214322 0.504548 0.653998 0.475997 0.530318 
0.664511 0.461191 0.569584 0.574544 0.572773 0.528196 0.560924 0.515552 0.581183 
0.553173 0.62711 0.5966 0.580472 0.481852 0.528215 0.493097 0.520959 0.536056 
0.482693 0.55775 0.501349 0.6581 0.629926 0.591148 0.559108 0.609382 0.624639 
0.535053 0.588926 0.713628 0.542169 0.667718 0.691671 0.683227 0.661298 0.744189 
0.661416 0.766872 0.711225 0.733258 0.73608 0.784411 0.752515 0.739657 0.691089 
0.56622 0.525787 0.616052 0.497849 0.601324 0.571748 0.570252 0.659691 0.631069 
0.388108 0.503903 0.633632 0.440772 0.516493 0.616177 0.470678 0.541866 0.711597 
0.810505 0.708017 0.700473 0.688465 0.661174 0.707402 0.643881 0.365882 0.53919 
0.469273 0.788361 0.711041 0.446814 0.473294 0.419787 0.412014 0.450247 0.545129 
0.501928 0.578655 0.428605 0.585938 0.311511 0.472196 0.438148 0.462793 0.399855 
0.402433 0.469945 0.524053 0.550686 0.434228 0.386469 0.423663 0.454179 0.439941 
0.26981 0.481189 0.335061 0.465877 0.441342 0.395615 0.285752 0.42945 0.356389 
0.454017 0.334189 0.376146 0.398988 0.213794 0.559493 0.380885 0.606109 0.57391 
0.339046 0.368357 0.337148 0.436285 0.403744 0.269477 0.609118 0.521526 0.316166 
0.289859 0.279004 0.36851 0.23032 0.64939 0.706872 0.411806 0.427788 0.285574 
0.428457 0.38179 0.620872 0.505425 0.425089 0.330272 0.307174 0.302269 0.290752 
0.736068 0.508057 0.789837 0.664455 0.670723 0.567725 0.383121 0.562041 0.36849 
0.428655 0.553234 0.689646 0.701705 0.640229 0.703436 0.664891 0.351431 0.672768 
0.745908 0.756437 0.480546 0.562221 0.518054 0.587365 0.600195 0.543051 0.487631 
0.816988 0.710162 0.445419 0.589748 0.650207 0.678279 0.641609 0.461066 0.480945 
0.620715 0.37737 0.42809 0.452479 0.323478 0.336553 0.445075 0.465871 0.572115 
0.702394 0.509912 0.603075 0.687959 0.393492 0.356565 0.337223 0.339666 0.431927 
0.369017 0.278747 0.311014 0.316904 0.340114 0.348425 0.329368 0.361184 0.351321 
0.315911 0.355794 0.367584 0.307391 0.296498 0.319164 0.294251 0.296138 0.340882 
0.358104 0.489092 0.398938 0.322438 0.447549 0.349704 0.618352 0.586139 0.358593 
0.365199 0.365789 0.395999 0.367075 0.392916 0.381135 0.389619 0.419512 0.350431 
0.252767 0.297333 0.324112 0.32528 0.26738 0.300874 0.293303 0.325357 0.64192 
0.609482 0.647202 0.852055 0.72285 0.710813 0.711618 0.686741 0.728527 0.65698 
0.790812 0.764196 0.740564 0.806149 0.765233 0.779797 0.70476 0.712433 0.711843 
0.677697 0.778841 0.767464 0.746846 0.776632 0.741229 0.836739 0.868092 0.861812 
0.89895 0.829599 0.804996 0.841047 0.895892 0.421688 0.27702 0.384685 0.370084 
0.305696 0.368201 0.360671 0.330104 0.318648 0.349783 0.362996 0.391594 0.391575 
0.235014 0.282758 0.311411 0.302306 0.262458 0.280712 0.113658 0.232113 0.25406 
0.257914 0.224818 0.28945 0.322115 0.349454 0.31141 0.342711 0.310035 0.326445 
0.342718 0.275194 0.298174 0.266416 0.889835 0.947217 0.92621 0.906665 0.879497 
0.723325 0.716377 0.563411 0.529502 0.497467 0.581408 0.591578 0.624233 0.591045 
0.568247 0.557965 0.591631 0.595724 0.513061 0.477811 0.525005 0.548564 0.414537 
0.477241 0.735274 0.646087 0.667754 0.675462 0.733891 0.541827 0.629042 0.538576 
0.562726 0.332973 0.591576 0.570606 0.659484 0.661076 0.696426 0.291212 0.445651 
0.725912 0.609773 0.578207 0.608305 0.554284 0.63113 0.697277 0.561065 0.658541 
0.515459 0.605991 0.507201 0.597215 0.595308 0.566877 0.702563 0.55489 0.538639 
0.614312 0.64814 0.313181 0.540617 0.5249 0.475941 0.565953 0.52566 0.599157 
0.632984 0.746085 0.778762 0.659447 0.547135 0.685128 0.722809 0.685584 0.49802 
0.52456 0.49901 0.26981 0.530581 0.714763 0.876587 0.775739 0.741782 0.834153 
0.807135 0.805515 0.822979 0.840865 0.863587 0.918775 0.893485 0.918669 0.855007 
0.824982 0.860865 0.302771 0.189924 0.210545 0.291324 0.249995 0.216732 0.299688 
0.389176 0.416705 0.415983 0.389883 0.374366 0.362688 0.415926 0.445221 0.388557 
0.315517 0.389297 0.385375 0.347652 0.145962 0.364163 0.349598 0.292447 0.386908 
0.328551 0.325692 0.407649 0.354768 0.344102 0.380924 0.434992 0.311027 0.295905 
0.285418 0.259769 0.315153 0.180305 0.245141 0.420546 0.413988 0.398991 0.448764 
0.366138 0.332134 0.505833 0.659408 0.651637 0.624416 0.478189 0.316148 0.344242 
0.254927 0.281361 0.252483 0.779201 0.782412 0.823503 0.793569 0.281046 0.291917 
0.316177 0.338909 0.237317 0.322336 0.315198 0.350861 0.272389 0.27062 0.303561 
0.222203 0.256048 0.359712 0.984887 0.842157 0.339562 0.333513 0.272751 0.297418 
0.307497 0.339584 0.369518 0.37178 0.355717 0.403635 0.27264 0.304252 0.298376 
0.327327 0.251022 0.194706 0.247787 0.210171 0.243543 0.282237 0.193936 0.927986 
0.280168 0.37177 0.393328 0.603654 0.387338 0.343936 0.398225 0.569524 0.435107 
0.497296 0.310139 0.298347 0.336163 0.345459 0.467616 0.454028 0.430051 0.47562 
0.286813 0.244688 0.145422 0.269333 0.510866 0.562897 0.312264 0.479873 0.179749 
0.408519 0.539205 0.40933 0.179749 0.430455 0.488476 0.535932 0.469664 0.498831 
0.521194 0.701497 0.728037 0.75787 0.833427 0.793047 0.809516 0.792372 0.762013 
0.773745 0.738177 0.723631 0.772524 0.745716 0.743092 0.754872 0.752317 0.714379 
0.633488 0.668234 0.713089 0.678276 0.647831 0.713094 0.675723 0.612013 0.649904 
0.635914 0.623259 0.298245 0.568826 0.601759 0.545801 0.332723 0.559528 0.59939 
0.556112 0.6361 0.552052 0.596485 0.367184 0.630026 0.438312 0.389035 0.482996 
0.516065 0.443665 0.434437 0.604123 0.508043 0.370942 0.470252 0.450563 0.593699 
0.579385 0.27078 0.526799 0.651958 0.615692 0.618833 0.620014 0.669636 0.563055 
0.458784 0.453404 0.448088 0.496664 0.513424 0.213794 0.480065 0.481128 0.473221 
0.496301 0.270912 0.302029 0.269477 0.531884 0.440814 0.521484 0.416408 0.426441 
0.502119 0.395465 0.288615 0.593911 0.569984 0.431682 0.545446 0.357436 0.485438 
0.482177 0.464451 0.565977 0.617913 0.384338 0.507936 0.405221 0.522127 0.466034 
0.442297 0.641041 0.564085 0.528936 0.567071 0.374875 0.499769 0.46097 0.729805 
0.563746 0.40871 0.639758 0.392464 0.59657 0.372128 0.501457 0.473603 0.677375 
0.481942 0.6502 0.593314 0.619508 0.65245 0.528866 0.214322 0.600032 0.564256 
0.582743 0.465344 0.723781 0.648921 0.690806 0.704323 0.724543 0.620273 0.637264 
0.682805 0.862827 0.630486 0.688986 0.625212 0.610568 0.642878 0.796373 0.6889 
0.77692 0.667013 0.757175 0.768136 0.779755 0.726438 0.727787 0.822778 0.744168 
0.709013 0.773757 0.671867 0.64079 0.833688 0.722963 0.688295 0.699851 0.687536 
0.711982 0.797851 0.8092 0.807428 0.886358 0.856641 0.74126 0.770244 0.715718 
0.748116 0.741763 0.709146 0.801212 0.755002 0.835216 0.774898 0.841577 0.816038 
0.779614 0.716117 0.801592 0.822133 0.864062 0.810011 0.815931 0.78481 0.682766 
0.658629 0.677327 0.834182 0.787256 0.855906 0.898882 0.648476 0.865302 0.84303 
0.720517 0.767954 0.814004 0.791422 0.752213 0.788585 0.762985 0.800087 0.764683 
0.732375 0.761028 0.79393 0.99014 0.878458 0.86222 0.841488 0.923241 0.895561 
0.895347 0.930247 0.89464 0.86522 0.342257 0.340412 0.240993 0.126872 0.183004 
0.325907 0.296743 0.281888 0.196716 0.322323 0.353995 0.255615 0.284898 0.293764 
0.315424 0.247385 0.282856 0.264601 0.284886 0.798479 0.819428 0.809873 0.863411 
0.824977 0.870307 0.867598 0.949092 0.315947 0.343106 0.228027 0.291022 0.315835 
0.368698 0.271973 0.231241 0.262873 0.298615 0.265292 0.22912 0.293728 0.265122 
0.292094 0.277878 0.251971 0.220777 0.208169 0.154302 0.22017 0.177251 0.0183219 
0.182851 0.15935 0.166507 0.525568 0.327008 0.229822 0.267455 0.259508 0.535276 
0.472299 0.391804 0.413183 0.422615 0.316432 0.285574 0.417679 0.378648 0.514744 
0.336267 0.36519 0.404339 0.511502 0.503481 0.44478 0.398943 0.4305 0.432727 
0.380033 0.428903 0.412119 0.586353 0.464956 0.460753 0.471504 0.452192 0.474471 
0.503413 0.478712 0.472644 0.509846 0.362634 0.481844 0.466158 0.427371 0.42602 
0.439039 0.37706 0.411411 0.405525 0.402499 0.429543 0.311691 0.327505 0.438496 
0.437841 0.353601 0.356632 0.378684 0.343781 0.309214 0.343853 0.291201 0.31547 
0.283191 0.245494 0.145962 0.264611 0.273255 0.284986 0.210205 0.201249 0.82994 
0.916422 0.855906 0.883694 0.836323 0.807365 0.961546 0.271159 0.242887 0.162314 
0.170714 0.312763 0.205876 0.921743 0.926605 0.935235 0.89811 0.310702 0.153548 
0.241855 0.224602 0.581483 0.576018 0.609739 0.53084 0.514738 0.371219 0.36609 
0.440746 0.244688 0.447837 0.447806 0.371098 0.502648 0.333966 0.45033 0.330987 
0.285752 0.354695 0.423189 0.483278 0.470061 0.319378 0.300589 0.331472 0.33538 
0.397552 0.42157 0.366598 0.357972 0.426922 0.38999 0.396199 0.428013 0.559024 
0.581547 0.344699 0.242593 0.231328 0.899953 0.874763 0.94366 0.932166 0.87311 
0.868247 0.241316 0.199824 0.228089 0.246555 0.272951 0.961923 0.908465 0.918683 
0.893857 0.541628 0.511134 0.579062 0.395859 0.360026 0.323223 0.407446 0.315282 
0.440202 0.343773 0.364523 0.309518 0.333611 0.312542 0.30967 0.337066 0.30128 
0.297866 0.33064 0.447231 0.421813 0.177717 0.298656 0.242148 0.262923 0.886587 
0.858112 0.916038 0.893502 0.92717 0.908859 0.83282 0.807191 0.89989 0.910218 
0.220804 0.226806 0.202275 0.256387 0.227812 0.978429 0.400083 0.432602 0.42863 
0.400158 0.34693 0.372227 0.333672 0.278822 0.374953 0.366999 0.391816 0.390382 
0.31755 0.355647 0.335339 0.258532 0.289057 0.312391 0.34174 0.238175 0.243547 
0.282078 0.295601 0.346446 0.375685 0.403705 0.374911 0.19839 0.278037 0.945168 
0.960883 0.373763 0.344512 0.288907 0.145422 0.31406 0.264765 0.253735 0.246229 
0.306552 0.279277 0.319811 0.352074 0.377268 0.301592 0.272619 0.262557 0.401216 
0.289997 0.405596 0.983959 0.195204 0.332248 0.357139 0.339926 0.440461 0.465587 
0.434633 0.40451 0.368125 0.338934 0.373226 0.404311 0.230475 0.225267 0.193173 
0.220669 0.217637 0.201357 0.0672355 0.213755 0.240984 0.286519 0.320158 0.271206 
0.216717 0.274015 0.239303 0.305805 0.199166 0.244489 0.29441 0.266276 0.265643 
0.296728 0.258631 0.211622 0.246658 0.89723 0.870913 0.318761 0.308045 0.34815 
0.286322 0.343203 0.337024 0.970631 0.969184 0.32362 0.245141 0.324993 0.326105 
0.289848 0.313896 0.23032 0.271374 0.295612 0.25543 0.180305 0.262066 0.226039 
0.21714 0.129899 0.209076 0.123384 0.190302 0.956155 0.182526 0.139497 0.252719 
0.27776 0.237888 0.167522 0.138123 0.27468 0.297121 0.216308 0.18087 0.277484 
0.221606 0.947501 0.91896 0.293171 0.181226 0.167263 0.160677 0.209182 0.238523 
0.257055 0.264113 0.282959 0.211391 0.172169 0.233984 0.140346 0.113702 0.168856 
0.96033 0.172546 0.169642 0.227801 0.150252 0.209667 0.0988905 0.00214071 0.146887 
0.15891 0.162135 0.185165 0.163471 0.114018 0.0183219 0.118855 0.130426 0.217653 
0.112966 0.210298 0.651422 0.236483 0.237522 0.216453 0.23647 0.260963 0.179422 
0.238801 0.20138 0.374658 0.412666 0.190808 0.198704 0.181715 0.122945 0.213718 
0.212067 0.192105 0.211957 0.140781 0.164823 0.232542 0.153694 0.108401 0.0425173 
0.204855 0.177909 0.156874 0.149876 0.215441 0.211363 0.0936296 0.23362 0.158096 
0.0852276 0.180295 0.204693 0.150641 0.105062 0.187215 0.135344 0.19825 0.156325 
0.132618 0.163646 0.0783952 0.183413 0.202045 0.235393 0.263258 0.208049 0.205238 
0.151932 0.175804 0.148306 0.177447 0.178294 0.0868902 0.134073 0.122673 0.111126 
0.0256242 0.130644 0.159043 0.16539 0.162928 0.0765045 0.0426706 0.126626 0.129009 
0.151307 0.159232 0.0820831 0.137979 0.121456 0.0952898 0.0742575 0.122997 0.131539 
0.124468 0.113542 0.148577 0.172255 0.113702 0.143116 0.0466455 0.161742 0.133845 
0.0787409 0.0402609 0.162669 0.0192634 0.165644 0.126086 0.170389 0.0258373 0.0827745 
0.0480757 0.153661 0.12292 0.109954 0.134853 0.100496 0.0426706 0.0646547 0.022256 
0.218477 0.0405535 0.0866556 0.103553 0.356725 0.00214071 0.0931712 0.11604 0.143013 
0.105456 0.0852276 0.100172 0.200476 0.093833 0.116615 0.119766 0.082214 0.165983 
0.141411 0.0521344 0.166596 0.137559 0.150383 0.113209 0.113209 0.149468 0.070915 
0.191623 0.119721 0.368837 0.0923833 0.190385 0.426493 0.0810306 0.39374 0.501364 
0.292806 0.370874 0.0712695 0.109639 0.47469 0.0725993 0.191901 0.0806959 0.102623 
0.0622348 0.0490709 0.14315 0.183772 0.226002 0.267836 0.177747 0.292034 0.231794 
0.403533 0.193918 0.396355 0.300953 0.295458 0.264321 0.254441 0.445407 0.421802 
0.38219 0.445509 0.486558 0.421475 0.667042 0.614851 0.574469 0.647406 0.514959 
0.642826 0.537894 0.589876 0.544597 0.640992 0.529767 0.506403 0.529222 0.135428 
0.13032 0.0517254 0.0721249 0.173017 0.416272 0.302129 0.399951 0.478214 0.447917 
0.469925 0.574466 0.308687 0.273001 0.369083 0.335249 0.525209 0.25461 0.450747 
0.364061 0.363681 0.22607 0.36079 0.329894 0.273168 0.4219 0.301876 0.309628 
0.393034 0.397279 0.602817 0.491774 0.458932 0.609881 0.617842 0.540344 0.672883 
0.485106 0.482125 0.612059 0.716528 0.603387 0.594645 0.491671 0.614016 0.465216 
0.632278 0.466755 0.689341 0.559762 0.497292 0.421148 0.687498 0.451744 0.549965 
0.513176 0.747567 0.651635 0.630296 0.693326 0.696151 0.518804 0.628271 0.467142 
0.500716 0.527532 0.423423 0.645473 0.659268 0.610918 0.355404 0.693403 0.548639 
0.440094 0.587605 0.352806 0.536165 0.376763 0.576652 0.426883 0.326696 0.462783 
0.492701 0.49525 0.562785 0.723316 0.553208 0.694731 0.356518 0.48367 0.726952 
0.792755 0.760344 0.626629 0.386155 0.271002 0.346665 0.343553 0.233121 0.340245 
0.583363 0.650554 0.571927 0.51546 0.526846 0.432846 0.195652 0.164449 0.167992 
0.150819 0.339752 0.264029 0.399662 0.502379 0.415806 0.418723 0.466764 0.450065 
0.527987 0.660825 0.427254 0.691522 0.663247 0.510378 0.760162 0.666039 0.459785 
0.385197 0.452351 0.424269 0.663376 0.397637 0.631276 0.670391 0.763481 0.294091 
0.421063 0.407672 0.619841 0.765965 0.578018 0.554468 0.533204 0.519864 0.583806 
0.575545 0.580982 0.542022 0.626624 0.529514 0.620096 0.6684 0.613382 0.684902 
0.633816 0.496861 0.568211 0.499816 0.526828 0.483506 0.559705 0.412303 0.533245 
0.582453 0.555338 0.593952 0.448735 0.446324 0.434716 0.343132 0.388079 0.412466 
0.43256 0.471028 0.480694 0.516808 0.389863 0.567134 0.333453 0.43835 0.352991 
0.478928 0.521152 0.54328 0.381692 0.385922 0.370126 0.402036 0.303239 0.335529 
0.311609 0.332098 0.449127 0.759834 0.654365 0.671708 0.387495 0.262116 0.371049 
0.622422 0.593089 0.460881 0.281063 0.581466 0.32717 0.52602 0.329605 0.367809 
0.364265 0.395126 0.713474 0.30427 0.669568 0.421052 0.457501 0.486425 0.374372 
0.324185 0.352356 0.48165 0.733459 0.691034 0.67391 0.845876 0.706113 0.838486 
0.626264 0.71603 0.543426 0.775496 0.690998 0.558756 0.719887 0.408203 0.394306 
0.380264 0.371191 0.427436 0.409468 0.354085 0.514644 0.546701 0.600872 0.508686 